[
  
  {"id":"arith_easy_1","task":"arithmetic","difficulty":"easy","question":"What is 6 + 9?","answer":"15"},
  {"id":"arith_easy_2","task":"arithmetic","difficulty":"easy","question":"What is 14 - 5?","answer":"9"},
  {"id":"arith_easy_3","task":"arithmetic","difficulty":"easy","question":"What is 7 × 4?","answer":"28"},
  {"id":"arith_easy_4","task":"arithmetic","difficulty":"easy","question":"What is 36 ÷ 6?","answer":"6"},
  {"id":"arith_easy_5","task":"arithmetic","difficulty":"easy","question":"What is 8 + 12?","answer":"20"},
  {"id":"arith_easy_6","task":"arithmetic","difficulty":"easy","question":"What is 15 - 7?","answer":"8"},
  {"id":"arith_easy_7","task":"arithmetic","difficulty":"easy","question":"What is 5 × 9?","answer":"45"},
  {"id":"arith_easy_8","task":"arithmetic","difficulty":"easy","question":"What is 42 ÷ 7?","answer":"6"},
  {"id":"arith_easy_9","task":"arithmetic","difficulty":"easy","question":"What is 10 + 11?","answer":"21"},
  {"id":"arith_easy_10","task":"arithmetic","difficulty":"easy","question":"What is 18 - 9?","answer":"9"},
  {"id":"arith_easy_11","task":"arithmetic","difficulty":"easy","question":"What is 6 × 8?","answer":"48"},
  {"id":"arith_easy_12","task":"arithmetic","difficulty":"easy","question":"What is 56 ÷ 8?","answer":"7"},
  {"id":"arith_easy_13","task":"arithmetic","difficulty":"easy","question":"What is 13 + 7?","answer":"20"},
  {"id":"arith_easy_14","task":"arithmetic","difficulty":"easy","question":"What is 20 - 6?","answer":"14"},
  {"id":"arith_easy_15","task":"arithmetic","difficulty":"easy","question":"What is 4 × 11?","answer":"44"},
  {"id":"arith_easy_16","task":"arithmetic","difficulty":"easy","question":"What is 63 ÷ 9?","answer":"7"},
  {"id":"arith_easy_17","task":"arithmetic","difficulty":"easy","question":"What is 9 + 8?","answer":"17"},
  {"id":"arith_easy_18","task":"arithmetic","difficulty":"easy","question":"What is 16 - 8?","answer":"8"},
  {"id":"arith_easy_19","task":"arithmetic","difficulty":"easy","question":"What is 3 × 12?","answer":"36"},
  {"id":"arith_easy_20","task":"arithmetic","difficulty":"easy","question":"What is 48 ÷ 6?","answer":"8"},

  {"id":"arith_med_1","task":"arithmetic","difficulty":"medium","question":"What is 17 × 6?","answer":"102"},
  {"id":"arith_med_2","task":"arithmetic","difficulty":"medium","question":"What is 144 ÷ 12?","answer":"12"},
  {"id":"arith_med_3","task":"arithmetic","difficulty":"medium","question":"What is 35 + 48?","answer":"83"},
  {"id":"arith_med_4","task":"arithmetic","difficulty":"medium","question":"What is 92 - 37?","answer":"55"},
  {"id":"arith_med_5","task":"arithmetic","difficulty":"medium","question":"What is 19 × 5?","answer":"95"},
  {"id":"arith_med_6","task":"arithmetic","difficulty":"medium","question":"What is 225 ÷ 15?","answer":"15"},
  {"id":"arith_med_7","task":"arithmetic","difficulty":"medium","question":"What is 67 + 28?","answer":"95"},
  {"id":"arith_med_8","task":"arithmetic","difficulty":"medium","question":"What is 100 - 46?","answer":"54"},
  {"id":"arith_med_9","task":"arithmetic","difficulty":"medium","question":"What is 14 × 8?","answer":"112"},
  {"id":"arith_med_10","task":"arithmetic","difficulty":"medium","question":"What is 198 ÷ 6?","answer":"33"},
  {"id":"arith_med_11","task":"arithmetic","difficulty":"medium","question":"What is 39 + 64?","answer":"103"},
  {"id":"arith_med_12","task":"arithmetic","difficulty":"medium","question":"What is 120 - 58?","answer":"62"},
  {"id":"arith_med_13","task":"arithmetic","difficulty":"medium","question":"What is 23 × 4?","answer":"92"},
  {"id":"arith_med_14","task":"arithmetic","difficulty":"medium","question":"What is 168 ÷ 7?","answer":"24"},
  {"id":"arith_med_15","task":"arithmetic","difficulty":"medium","question":"What is 56 + 79?","answer":"135"},
  {"id":"arith_med_16","task":"arithmetic","difficulty":"medium","question":"What is 200 - 87?","answer":"113"},
  {"id":"arith_med_17","task":"arithmetic","difficulty":"medium","question":"What is 16 × 9?","answer":"144"},
  {"id":"arith_med_18","task":"arithmetic","difficulty":"medium","question":"What is 324 ÷ 9?","answer":"36"},
  {"id":"arith_med_19","task":"arithmetic","difficulty":"medium","question":"What is 72 + 58?","answer":"130"},
  {"id":"arith_med_20","task":"arithmetic","difficulty":"medium","question":"What is 150 - 69?","answer":"81"},

  {"id":"arith_hard_1","task":"arithmetic","difficulty":"hard","question":"You buy 3 items costing $14 each and get $5 off. How much do you pay?","answer":"37"},
  {"id":"arith_hard_2","task":"arithmetic","difficulty":"hard","question":"A box has 12 packs. Each pack has 8 pencils. How many pencils are there?","answer":"96"},
  {"id":"arith_hard_3","task":"arithmetic","difficulty":"hard","question":"You walk 5 km each day for 6 days. How far do you walk in total?","answer":"30"},
  {"id":"arith_hard_4","task":"arithmetic","difficulty":"hard","question":"A ticket costs $45. You buy 4 tickets and get $20 off. How much do you pay?","answer":"160"},
  {"id":"arith_hard_5","task":"arithmetic","difficulty":"hard","question":"A car travels 60 km per hour for 3 hours. How far does it go?","answer":"180"},
  {"id":"arith_hard_6","task":"arithmetic","difficulty":"hard","question":"You have $500. You spend $275. How much is left?","answer":"225"},
  {"id":"arith_hard_7","task":"arithmetic","difficulty":"hard","question":"Each chair costs $48. You buy 7 chairs. What is the total cost?","answer":"336"},
  {"id":"arith_hard_8","task":"arithmetic","difficulty":"hard","question":"A farmer has 9 rows of crops with 14 plants in each row. How many plants are there?","answer":"126"},
  {"id":"arith_hard_9","task":"arithmetic","difficulty":"hard","question":"You earn $120 per day for 5 days, then spend $180. How much remains?","answer":"420"},
  {"id":"arith_hard_10","task":"arithmetic","difficulty":"hard","question":"A book costs $18. You buy 9 books and receive a $12 discount. What is the final cost?","answer":"150"},
  {"id":"arith_hard_11","task":"arithmetic","difficulty":"hard","question":"A bus travels 75 km per hour for 4 hours. How far does it travel?","answer":"300"},
  {"id":"arith_hard_12","task":"arithmetic","difficulty":"hard","question":"You buy 6 items costing $27 each. What is the total cost?","answer":"162"},
  {"id":"arith_hard_13","task":"arithmetic","difficulty":"hard","question":"A warehouse ships 24 boxes each weighing 15 kg. What is the total weight?","answer":"360"},
  {"id":"arith_hard_14","task":"arithmetic","difficulty":"hard","question":"A class has 28 students. Each student has 3 notebooks. How many notebooks are there?","answer":"84"},
  {"id":"arith_hard_15","task":"arithmetic","difficulty":"hard","question":"You save $90 each month for 8 months. How much do you save?","answer":"720"},
  {"id":"arith_hard_16","task":"arithmetic","difficulty":"hard","question":"A movie ticket costs $12. You buy 15 tickets. What is the total cost?","answer":"180"},
  {"id":"arith_hard_17","task":"arithmetic","difficulty":"hard","question":"A train travels 110 km per hour for 2 hours. How far does it travel?","answer":"220"},
  {"id":"arith_hard_18","task":"arithmetic","difficulty":"hard","question":"A store sells 18 boxes each containing 24 bottles. How many bottles are sold?","answer":"432"},
  {"id":"arith_hard_19","task":"arithmetic","difficulty":"hard","question":"You buy 4 jackets at $85 each and receive $40 off. What is the final cost?","answer":"300"},
  {"id":"arith_hard_20","task":"arithmetic","difficulty":"hard","question":"A factory produces 125 items per day for 6 days. How many items are produced?","answer":"750"},
  {"id":"logic_easy_1","task":"symbolic_logic","difficulty":"easy","question":"If A is taller than B and B is taller than C, who is the shortest?","answer":"C"},
  {"id":"logic_easy_2","task":"symbolic_logic","difficulty":"easy","question":"If X is to the left of Y and Y is to the left of Z, who is in the middle?","answer":"Y"},
  {"id":"logic_easy_3","task":"symbolic_logic","difficulty":"easy","question":"All cats are animals. Is a cat an animal?","answer":"Yes"},
  {"id":"logic_easy_4","task":"symbolic_logic","difficulty":"easy","question":"If today is Monday, what day comes after Monday?","answer":"Tuesday"},
  {"id":"logic_easy_5","task":"symbolic_logic","difficulty":"easy","question":"If red comes before blue and blue comes before green, which comes first?","answer":"Red"},
  {"id":"logic_easy_6","task":"symbolic_logic","difficulty":"easy","question":"All apples are fruits. Is an apple a fruit?","answer":"Yes"},
  {"id":"logic_easy_7","task":"symbolic_logic","difficulty":"easy","question":"If A is older than B, who is younger?","answer":"B"},
  {"id":"logic_easy_8","task":"symbolic_logic","difficulty":"easy","question":"If it is raining, the ground gets wet. It is raining. Is the ground wet?","answer":"Yes"},
  {"id":"logic_easy_9","task":"symbolic_logic","difficulty":"easy","question":"If one comes before two, which is first?","answer":"One"},
  {"id":"logic_easy_10","task":"symbolic_logic","difficulty":"easy","question":"All squares are shapes. Is a square a shape?","answer":"Yes"},
  {"id":"logic_easy_11","task":"symbolic_logic","difficulty":"easy","question":"If B is bigger than A, which is smaller?","answer":"A"},
  {"id":"logic_easy_12","task":"symbolic_logic","difficulty":"easy","question":"If morning comes before afternoon, which comes first?","answer":"Morning"},
  {"id":"logic_easy_13","task":"symbolic_logic","difficulty":"easy","question":"All birds have wings. Does a bird have wings?","answer":"Yes"},
  {"id":"logic_easy_14","task":"symbolic_logic","difficulty":"easy","question":"If you are facing north and turn right, which direction are you facing?","answer":"East"},
  {"id":"logic_easy_15","task":"symbolic_logic","difficulty":"easy","question":"If A is behind B, who is in front?","answer":"B"},
  {"id":"logic_easy_16","task":"symbolic_logic","difficulty":"easy","question":"All cars are vehicles. Is a car a vehicle?","answer":"Yes"},
  {"id":"logic_easy_17","task":"symbolic_logic","difficulty":"easy","question":"If night comes after day, which comes first?","answer":"Day"},
  {"id":"logic_easy_18","task":"symbolic_logic","difficulty":"easy","question":"If X is heavier than Y, which is lighter?","answer":"Y"},
  {"id":"logic_easy_19","task":"symbolic_logic","difficulty":"easy","question":"All dogs are animals. Is a dog an animal?","answer":"Yes"},
  {"id":"logic_easy_20","task":"symbolic_logic","difficulty":"easy","question":"If 1 comes before 2, which is later?","answer":"2"},

  {"id":"logic_med_1","task":"symbolic_logic","difficulty":"medium","question":"All bloops are razzes. Some razzes are torks. Are some bloops torks?","answer":"Cannot be determined"},
  {"id":"logic_med_2","task":"symbolic_logic","difficulty":"medium","question":"If A is left of B and C is right of B, who is in the middle?","answer":"B"},
  {"id":"logic_med_3","task":"symbolic_logic","difficulty":"medium","question":"No dogs are cats. All cats are animals. Are dogs animals?","answer":"Cannot be determined"},
  {"id":"logic_med_4","task":"symbolic_logic","difficulty":"medium","question":"If all roses are flowers and some flowers fade quickly, do some roses fade quickly?","answer":"Cannot be determined"},
  {"id":"logic_med_5","task":"symbolic_logic","difficulty":"medium","question":"If A is taller than B and B is taller than C, is A taller than C?","answer":"Yes"},
  {"id":"logic_med_6","task":"symbolic_logic","difficulty":"medium","question":"All trucks are vehicles. Some vehicles are electric. Are some trucks electric?","answer":"Cannot be determined"},
  {"id":"logic_med_7","task":"symbolic_logic","difficulty":"medium","question":"If today is Wednesday, what day will it be in two days?","answer":"Friday"},
  {"id":"logic_med_8","task":"symbolic_logic","difficulty":"medium","question":"If X is heavier than Y and Y is heavier than Z, who is lightest?","answer":"Z"},
  {"id":"logic_med_9","task":"symbolic_logic","difficulty":"medium","question":"Some birds can fly. Penguins are birds. Can penguins fly?","answer":"Cannot be determined"},
  {"id":"logic_med_10","task":"symbolic_logic","difficulty":"medium","question":"All pencils are tools. No tools are food. Are pencils food?","answer":"No"},
  {"id":"logic_med_11","task":"symbolic_logic","difficulty":"medium","question":"Some A are B. All B are C. Are some A C?","answer":"Yes"},
  {"id":"logic_med_12","task":"symbolic_logic","difficulty":"medium","question":"All squares are rectangles. All rectangles are shapes. Are squares shapes?","answer":"Yes"},
  {"id":"logic_med_13","task":"symbolic_logic","difficulty":"medium","question":"No A are B. Some C are A. Are some C not B?","answer":"Yes"},
  {"id":"logic_med_14","task":"symbolic_logic","difficulty":"medium","question":"If Monday is day 1, what day is day 3?","answer":"Wednesday"},
  {"id":"logic_med_15","task":"symbolic_logic","difficulty":"medium","question":"All phones are devices. Some devices are expensive. Are some phones expensive?","answer":"Cannot be determined"},
  {"id":"logic_med_16","task":"symbolic_logic","difficulty":"medium","question":"If A is faster than B and B is faster than C, who is slowest?","answer":"C"},
  {"id":"logic_med_17","task":"symbolic_logic","difficulty":"medium","question":"Some books are heavy. All heavy things are hard to carry. Are some books hard to carry?","answer":"Yes"},
  {"id":"logic_med_18","task":"symbolic_logic","difficulty":"medium","question":"No birds are mammals. All sparrows are birds. Are sparrows mammals?","answer":"No"},
  {"id":"logic_med_19","task":"symbolic_logic","difficulty":"medium","question":"If X comes after Y and Y comes after Z, which comes first?","answer":"Z"},
  {"id":"logic_med_20","task":"symbolic_logic","difficulty":"medium","question":"Some A are B. No B are C. Are some A not C?","answer":"Yes"},

  {"id":"logic_hard_1","task":"symbolic_logic","difficulty":"hard","question":"If A is left of B, B is left of C, and D is right of C, who is second from the left?","answer":"B"},
  {"id":"logic_hard_2","task":"symbolic_logic","difficulty":"hard","question":"All A are B. No B are C. Some D are A. Are some D not C?","answer":"Yes"},
  {"id":"logic_hard_3","task":"symbolic_logic","difficulty":"hard","question":"If X is faster than Y, and Y is faster than Z, and W is slower than Z, who is fastest?","answer":"X"},
  {"id":"logic_hard_4","task":"symbolic_logic","difficulty":"hard","question":"All lamps are lights. Some lights are broken. Are some lamps broken?","answer":"Cannot be determined"},
  {"id":"logic_hard_5","task":"symbolic_logic","difficulty":"hard","question":"If no A are B and all B are C, can any A be C?","answer":"Yes"},
  {"id":"logic_hard_6","task":"symbolic_logic","difficulty":"hard","question":"Some A are B. All B are C. Are some A C?","answer":"Yes"},
  {"id":"logic_hard_7","task":"symbolic_logic","difficulty":"hard","question":"If A is before B, B is before C, and C is before D, who is third?","answer":"C"},
  {"id":"logic_hard_8","task":"symbolic_logic","difficulty":"hard","question":"No cars are boats. Some vehicles are cars. Are some vehicles not boats?","answer":"Yes"},
  {"id":"logic_hard_9","task":"symbolic_logic","difficulty":"hard","question":"If all students are people and some people are teachers, are some students teachers?","answer":"Cannot be determined"},
  {"id":"logic_hard_10","task":"symbolic_logic","difficulty":"hard","question":"If X is older than Y, Y is older than Z, and Z is older than W, who is youngest?","answer":"W"},
  {"id":"logic_hard_11","task":"symbolic_logic","difficulty":"hard","question":"All A are B. Some B are C. No C are D. Are some A not D?","answer":"Yes"},
  {"id":"logic_hard_12","task":"symbolic_logic","difficulty":"hard","question":"If P is north of Q, Q is north of R, and S is south of R, who is farthest north?","answer":"P"},
  {"id":"logic_hard_13","task":"symbolic_logic","difficulty":"hard","question":"Some A are B. Some B are C. Are some A C?","answer":"Cannot be determined"},
  {"id":"logic_hard_14","task":"symbolic_logic","difficulty":"hard","question":"No A are B. All C are A. Are any C B?","answer":"No"},
  {"id":"logic_hard_15","task":"symbolic_logic","difficulty":"hard","question":"If X is heavier than Y, Y is heavier than Z, and Z is heavier than W, who is second heaviest?","answer":"Y"},
  {"id":"logic_hard_16","task":"symbolic_logic","difficulty":"hard","question":"All keys are metal. Some metal objects rust. Are some keys rusty?","answer":"Cannot be determined"},
  {"id":"logic_hard_17","task":"symbolic_logic","difficulty":"hard","question":"If A is to the right of B, B is to the right of C, and D is to the left of C, who is farthest right?","answer":"A"},
  {"id":"logic_hard_18","task":"symbolic_logic","difficulty":"hard","question":"Some A are B. All B are C. No C are D. Are some A not D?","answer":"Yes"},
  {"id":"logic_hard_19","task":"symbolic_logic","difficulty":"hard","question":"If today is Friday, what day was it three days ago?","answer":"Tuesday"},
  {"id":"logic_hard_20","task":"symbolic_logic","difficulty":"hard","question":"All musicians are artists. Some artists are famous. Are some musicians famous?","answer":"Cannot be determined"},
  {"id":"fact_easy_1","task":"factual","difficulty":"easy","question":"What is the capital of France?","answer":"Paris"},
  {"id":"fact_easy_2","task":"factual","difficulty":"easy","question":"What planet is known as the Red Planet?","answer":"Mars"},
  {"id":"fact_easy_3","task":"factual","difficulty":"easy","question":"How many days are in a week?","answer":"7"},
  {"id":"fact_easy_4","task":"factual","difficulty":"easy","question":"What gas do humans breathe in?","answer":"Oxygen"},
  {"id":"fact_easy_5","task":"factual","difficulty":"easy","question":"What is the largest ocean on Earth?","answer":"Pacific Ocean"},
  {"id":"fact_easy_6","task":"factual","difficulty":"easy","question":"What color is the sky on a clear day?","answer":"Blue"},
  {"id":"fact_easy_7","task":"factual","difficulty":"easy","question":"What animal is known as man's best friend?","answer":"Dog"},
  {"id":"fact_easy_8","task":"factual","difficulty":"easy","question":"What is H2O commonly called?","answer":"Water"},
  {"id":"fact_easy_9","task":"factual","difficulty":"easy","question":"How many continents are there?","answer":"7"},
  {"id":"fact_easy_10","task":"factual","difficulty":"easy","question":"What direction does the sun rise from?","answer":"East"},
  {"id":"fact_easy_11","task":"factual","difficulty":"easy","question":"What shape has three sides?","answer":"Triangle"},
  {"id":"fact_easy_12","task":"factual","difficulty":"easy","question":"What do bees produce?","answer":"Honey"},
  {"id":"fact_easy_13","task":"factual","difficulty":"easy","question":"What is the color of grass?","answer":"Green"},
  {"id":"fact_easy_14","task":"factual","difficulty":"easy","question":"What instrument measures temperature?","answer":"Thermometer"},
  {"id":"fact_easy_15","task":"factual","difficulty":"easy","question":"What do plants need for photosynthesis?","answer":"Sunlight"},
  {"id":"fact_easy_16","task":"factual","difficulty":"easy","question":"How many hours are in a day?","answer":"24"},
  {"id":"fact_easy_17","task":"factual","difficulty":"easy","question":"What animal says 'meow'?","answer":"Cat"},
  {"id":"fact_easy_18","task":"factual","difficulty":"easy","question":"What is frozen water called?","answer":"Ice"},
  {"id":"fact_easy_19","task":"factual","difficulty":"easy","question":"What part of the body do you see with?","answer":"Eyes"},
  {"id":"fact_easy_20","task":"factual","difficulty":"easy","question":"How many legs does a spider have?","answer":"8"},

  {"id":"fact_med_1","task":"factual","difficulty":"medium","question":"Who wrote 'Romeo and Juliet'?","answer":"William Shakespeare"},
  {"id":"fact_med_2","task":"factual","difficulty":"medium","question":"What is the chemical symbol for gold?","answer":"Au"},
  {"id":"fact_med_3","task":"factual","difficulty":"medium","question":"What year did World War II end?","answer":"1945"},
  {"id":"fact_med_4","task":"factual","difficulty":"medium","question":"What is the largest mammal?","answer":"Blue whale"},
  {"id":"fact_med_5","task":"factual","difficulty":"medium","question":"Which element has atomic number 1?","answer":"Hydrogen"},
  {"id":"fact_med_6","task":"factual","difficulty":"medium","question":"Who painted the Mona Lisa?","answer":"Leonardo da Vinci"},
  {"id":"fact_med_7","task":"factual","difficulty":"medium","question":"What is the hardest natural substance?","answer":"Diamond"},
  {"id":"fact_med_8","task":"factual","difficulty":"medium","question":"What country has the largest population?","answer":"China"},
  {"id":"fact_med_9","task":"factual","difficulty":"medium","question":"What organ pumps blood through the body?","answer":"Heart"},
  {"id":"fact_med_10","task":"factual","difficulty":"medium","question":"What language has the most native speakers?","answer":"Mandarin Chinese"},
  {"id":"fact_med_11","task":"factual","difficulty":"medium","question":"What planet is closest to the Sun?","answer":"Mercury"},
  {"id":"fact_med_12","task":"factual","difficulty":"medium","question":"What is the tallest mountain in the world?","answer":"Mount Everest"},
  {"id":"fact_med_13","task":"factual","difficulty":"medium","question":"Which blood type is known as the universal donor?","answer":"O negative"},
  {"id":"fact_med_14","task":"factual","difficulty":"medium","question":"What is the largest desert in the world?","answer":"Antarctica"},
  {"id":"fact_med_15","task":"factual","difficulty":"medium","question":"What gas do plants absorb from the atmosphere?","answer":"Carbon dioxide"},
  {"id":"fact_med_16","task":"factual","difficulty":"medium","question":"Who discovered gravity when observing a falling apple?","answer":"Isaac Newton"},
  {"id":"fact_med_17","task":"factual","difficulty":"medium","question":"What organ is responsible for filtering blood?","answer":"Kidneys"},
  {"id":"fact_med_18","task":"factual","difficulty":"medium","question":"What is the main language spoken in Brazil?","answer":"Portuguese"},
  {"id":"fact_med_19","task":"factual","difficulty":"medium","question":"What is the currency of Japan?","answer":"Yen"},
  {"id":"fact_med_20","task":"factual","difficulty":"medium","question":"Which continent is the Amazon Rainforest located in?","answer":"South America"},

  {"id":"fact_hard_1","task":"factual","difficulty":"hard","question":"What year was the first iPhone released?","answer":"2007"},
  {"id":"fact_hard_2","task":"factual","difficulty":"hard","question":"Who developed the theory of general relativity?","answer":"Albert Einstein"},
  {"id":"fact_hard_3","task":"factual","difficulty":"hard","question":"What is the capital of Australia?","answer":"Canberra"},
  {"id":"fact_hard_4","task":"factual","difficulty":"hard","question":"What is the smallest prime number?","answer":"2"},
  {"id":"fact_hard_5","task":"factual","difficulty":"hard","question":"Which planet has the most moons?","answer":"Saturn"},
  {"id":"fact_hard_6","task":"factual","difficulty":"hard","question":"What is the boiling point of water in Celsius?","answer":"100"},
  {"id":"fact_hard_7","task":"factual","difficulty":"hard","question":"Who was the first person to walk on the Moon?","answer":"Neil Armstrong"},
  {"id":"fact_hard_8","task":"factual","difficulty":"hard","question":"What is the chemical formula of carbon dioxide?","answer":"CO2"},
  {"id":"fact_hard_9","task":"factual","difficulty":"hard","question":"Which continent is the Sahara Desert located on?","answer":"Africa"},
  {"id":"fact_hard_10","task":"factual","difficulty":"hard","question":"What is the largest bone in the human body?","answer":"Femur"},
  {"id":"fact_hard_11","task":"factual","difficulty":"hard","question":"What year did the Berlin Wall fall?","answer":"1989"},
  {"id":"fact_hard_12","task":"factual","difficulty":"hard","question":"What element has the chemical symbol 'Na'?","answer":"Sodium"},
  {"id":"fact_hard_13","task":"factual","difficulty":"hard","question":"What is the longest river in the world?","answer":"Nile"},
  {"id":"fact_hard_14","task":"factual","difficulty":"hard","question":"Who is known as the father of computers?","answer":"Charles Babbage"},
  {"id":"fact_hard_15","task":"factual","difficulty":"hard","question":"What year did India gain independence?","answer":"1947"},
  {"id":"fact_hard_16","task":"factual","difficulty":"hard","question":"What part of the brain controls balance?","answer":"Cerebellum"},
  {"id":"fact_hard_17","task":"factual","difficulty":"hard","question":"Which metal is liquid at room temperature?","answer":"Mercury"},
  {"id":"fact_hard_18","task":"factual","difficulty":"hard","question":"What is the square root of 144?","answer":"12"},
  {"id":"fact_hard_19","task":"factual","difficulty":"hard","question":"Which scientist proposed the laws of motion?","answer":"Isaac Newton"},
  {"id":"fact_hard_20","task":"factual","difficulty":"hard","question":"What is the chemical symbol for potassium?","answer":"K"},

  {"id":"reason_easy_1","task":"reasoning","difficulty":"easy","question":"Tom is taller than Sam. Who is taller?","answer":"Tom"},
  {"id":"reason_easy_2","task":"reasoning","difficulty":"easy","question":"If you have 2 apples and get 3 more, how many apples do you have?","answer":"5"},
  {"id":"reason_easy_3","task":"reasoning","difficulty":"easy","question":"If it is raining, should you carry an umbrella?","answer":"Yes"},
  {"id":"reason_easy_4","task":"reasoning","difficulty":"easy","question":"If you finish your homework, can you relax?","answer":"Yes"},
  {"id":"reason_easy_5","task":"reasoning","difficulty":"easy","question":"If you turn off the light, will the room be dark?","answer":"Yes"},
  {"id":"reason_easy_6","task":"reasoning","difficulty":"easy","question":"If a glass is empty, does it contain water?","answer":"No"},
  {"id":"reason_easy_7","task":"reasoning","difficulty":"easy","question":"If you wake up at night, is it daytime?","answer":"No"},
  {"id":"reason_easy_8","task":"reasoning","difficulty":"easy","question":"If you add 1 to 4, what do you get?","answer":"5"},
  {"id":"reason_easy_9","task":"reasoning","difficulty":"easy","question":"If ice melts, does it become water?","answer":"Yes"},
  {"id":"reason_easy_10","task":"reasoning","difficulty":"easy","question":"If you drop a ball, will it fall down?","answer":"Yes"},
  {"id":"reason_easy_11","task":"reasoning","difficulty":"easy","question":"If today is Monday, is tomorrow Tuesday?","answer":"Yes"},
  {"id":"reason_easy_12","task":"reasoning","difficulty":"easy","question":"If you are hungry, should you eat food?","answer":"Yes"},
  {"id":"reason_easy_13","task":"reasoning","difficulty":"easy","question":"If snow melts, does it become liquid?","answer":"Yes"},
  {"id":"reason_easy_14","task":"reasoning","difficulty":"easy","question":"If a door is locked, can you open it without a key?","answer":"No"},
  {"id":"reason_easy_15","task":"reasoning","difficulty":"easy","question":"If you sit down, are you standing?","answer":"No"},
  {"id":"reason_easy_16","task":"reasoning","difficulty":"easy","question":"If the sun sets, is it becoming night?","answer":"Yes"},
  {"id":"reason_easy_17","task":"reasoning","difficulty":"easy","question":"If you spill water, does the floor get wet?","answer":"Yes"},
  {"id":"reason_easy_18","task":"reasoning","difficulty":"easy","question":"If a battery is dead, will a device turn on?","answer":"No"},
  {"id":"reason_easy_19","task":"reasoning","difficulty":"easy","question":"If you sleep, are you awake?","answer":"No"},
  {"id":"reason_easy_20","task":"reasoning","difficulty":"easy","question":"If you turn the volume up, does the sound get louder?","answer":"Yes"},

  {"id":"reason_med_1","task":"reasoning","difficulty":"medium","question":"A bat and a ball cost $1.10 total. The bat costs $1 more than the ball. How much does the ball cost?","answer":"0.05"},
  {"id":"reason_med_2","task":"reasoning","difficulty":"medium","question":"If two people take 2 hours to paint a wall, how long will four people take?","answer":"1 hour"},
  {"id":"reason_med_3","task":"reasoning","difficulty":"medium","question":"You see lightning, then hear thunder 5 seconds later. Is the storm close or far?","answer":"Far"},
  {"id":"reason_med_4","task":"reasoning","difficulty":"medium","question":"If a train leaves at 3 PM and arrives at 6 PM, how long is the journey?","answer":"3 hours"},
  {"id":"reason_med_5","task":"reasoning","difficulty":"medium","question":"If all squares are rectangles and this shape is a square, is it a rectangle?","answer":"Yes"},
  {"id":"reason_med_6","task":"reasoning","difficulty":"medium","question":"If a clock shows 3:00, what angle is between the hands?","answer":"90 degrees"},
  {"id":"reason_med_7","task":"reasoning","difficulty":"medium","question":"If it takes 10 minutes to boil an egg, how long does it take to boil two eggs together?","answer":"10 minutes"},
  {"id":"reason_med_8","task":"reasoning","difficulty":"medium","question":"If you travel 60 km in 1 hour, what is your speed?","answer":"60 km/h"},
  {"id":"reason_med_9","task":"reasoning","difficulty":"medium","question":"If you flip a fair coin, what is the probability of heads?","answer":"0.5"},
  {"id":"reason_med_10","task":"reasoning","difficulty":"medium","question":"If one dozen eggs cost $3, what is the cost per egg?","answer":"0.25"},
  {"id":"reason_med_11","task":"reasoning","difficulty":"medium","question":"If you leave home at 8 AM and arrive at 9:30 AM, how long did you travel?","answer":"1.5 hours"},
  {"id":"reason_med_12","task":"reasoning","difficulty":"medium","question":"If a shirt costs $20 and is discounted by $5, what is the final price?","answer":"15"},
  {"id":"reason_med_13","task":"reasoning","difficulty":"medium","question":"If a recipe needs 2 cups of flour per cake, how many cups are needed for 4 cakes?","answer":"8"},
  {"id":"reason_med_14","task":"reasoning","difficulty":"medium","question":"If a number is even, is it divisible by 2?","answer":"Yes"},
  {"id":"reason_med_15","task":"reasoning","difficulty":"medium","question":"If you double 6 and subtract 4, what do you get?","answer":"8"},
  {"id":"reason_med_16","task":"reasoning","difficulty":"medium","question":"If a car travels 100 km in 2 hours, what is its average speed?","answer":"50 km/h"},
  {"id":"reason_med_17","task":"reasoning","difficulty":"medium","question":"If today is Friday, what day is tomorrow?","answer":"Saturday"},
  {"id":"reason_med_18","task":"reasoning","difficulty":"medium","question":"If a class has 30 students and 10 are absent, how many are present?","answer":"20"},
  {"id":"reason_med_19","task":"reasoning","difficulty":"medium","question":"If you subtract 9 from 20, what is the result?","answer":"11"},
  {"id":"reason_med_20","task":"reasoning","difficulty":"medium","question":"If water freezes, does it turn solid?","answer":"Yes"},

  {"id":"reason_hard_1","task":"reasoning","difficulty":"hard","question":"If you have a 3-liter jug and a 5-liter jug, can you measure exactly 4 liters?","answer":"Yes"},
  {"id":"reason_hard_2","task":"reasoning","difficulty":"hard","question":"If it takes 3 workers 6 hours to build a fence, how long will it take 6 workers?","answer":"3 hours"},
  {"id":"reason_hard_3","task":"reasoning","difficulty":"hard","question":"If you double a number and then subtract 10, you get 14. What was the original number?","answer":"12"},
  {"id":"reason_hard_4","task":"reasoning","difficulty":"hard","question":"If you are facing north and turn right, which direction are you facing?","answer":"East"},
  {"id":"reason_hard_5","task":"reasoning","difficulty":"hard","question":"If five machines make five widgets in five minutes, how long would 100 machines take to make 100 widgets?","answer":"5 minutes"},
  {"id":"reason_hard_6","task":"reasoning","difficulty":"hard","question":"If a rope is cut into 3 equal pieces, and each piece is 4 meters long, how long was the rope originally?","answer":"12"},
  {"id":"reason_hard_7","task":"reasoning","difficulty":"hard","question":"If you rearrange the letters of 'listen', what word can you form?","answer":"Silent"},
  {"id":"reason_hard_8","task":"reasoning","difficulty":"hard","question":"If it is 2 hours before noon, what time is it?","answer":"10 AM"},
  {"id":"reason_hard_9","task":"reasoning","difficulty":"hard","question":"If a farmer has 17 sheep and all but 9 die, how many are left?","answer":"9"},
  {"id":"reason_hard_10","task":"reasoning","difficulty":"hard","question":"If a triangle has sides 3, 4, and 5, is it a right triangle?","answer":"Yes"},
  {"id":"reason_hard_11","task":"reasoning","difficulty":"hard","question":"If you add the ages of two people (20 and 30), what is the total?","answer":"50"},
  {"id":"reason_hard_12","task":"reasoning","difficulty":"hard","question":"If a clock gains 5 minutes every hour, how much will it gain in 4 hours?","answer":"20 minutes"},
  {"id":"reason_hard_13","task":"reasoning","difficulty":"hard","question":"If you buy 3 items at $40 each and get $30 off, what is the total cost?","answer":"90"},
  {"id":"reason_hard_14","task":"reasoning","difficulty":"hard","question":"If you travel 120 km at 60 km/h, how long does the trip take?","answer":"2 hours"},
  {"id":"reason_hard_15","task":"reasoning","difficulty":"hard","question":"If you multiply a number by 4 and get 36, what was the number?","answer":"9"},
  {"id":"reason_hard_16","task":"reasoning","difficulty":"hard","question":"If all birds have wings and a sparrow is a bird, does it have wings?","answer":"Yes"},
  {"id":"reason_hard_17","task":"reasoning","difficulty":"hard","question":"If you start with $200 and spend $75, how much money remains?","answer":"125"},
  {"id":"reason_hard_18","task":"reasoning","difficulty":"hard","question":"If a square has a side length of 5, what is its perimeter?","answer":"20"},
  {"id":"reason_hard_19","task":"reasoning","difficulty":"hard","question":"If you read 15 pages per hour for 4 hours, how many pages do you read?","answer":"60"},
  {"id":"reason_hard_20","task":"reasoning","difficulty":"hard","question":"If you divide 144 by 12, what is the result?","answer":"12"}

]
